24
Properties=species:S:1:pos:R:3:dft_forces:R:3:dft_hirshfeld:R:1 dft_energy=-16649.970304709 dft_dipole="8.28953724409492e-05 7.23917280734905e-06 9.37074596864735e-07" pbc="F F F"
O       -1.54468739      -1.56514304       0.63351883      -0.33709761       0.00982922       1.09924200      -0.26774917
H       -1.88043916      -1.00888889      -0.08146416      -0.33680308       0.39412015      -0.66711433       0.11012764
H       -0.74550187      -1.98292690       0.28675867       0.63156178      -0.44926083      -0.36481418       0.10994486
O       -0.87132537       2.08928329       0.33580352      -0.95658219       0.27439558      -0.58047527      -0.26775556
H        0.03299320       2.13750154      -0.00089489       0.81798895       0.13407600      -0.21835289       0.10993391
H       -0.81631362       1.59393436       1.16342152       0.08108486      -0.33886284       0.76851895       0.11013693
O        0.96675241      -2.32966774      -0.48368053      -0.24523646       0.08986911       1.25675622      -0.22889329
H        0.84456385      -1.66198986      -1.18257189      -0.11654866       0.82656677      -1.01087303       0.10713839
H        1.33577097      -3.10249185      -0.90194973       0.34754273      -0.74951865      -0.37171937       0.16926822
O       -0.62435090       0.21205456       2.48216189       0.84941334       0.91078728      -0.29101899      -0.22890033
H       -1.01708519      -0.46602123       1.90324391      -0.59139319      -0.94188212      -0.69443804       0.10714830
H       -1.00797808       0.09271962       3.34643639      -0.34439709      -0.09189551       0.83066314       0.16924138
O        0.51163471      -0.27460664      -2.21357142       0.43227135      -1.01960712      -0.31580692      -0.26773409
H       -0.42417681      -0.06605809      -2.09420936      -0.81671596       0.25736176       0.00598089       0.10994738
H        0.99618042       0.46801454      -1.83006321       0.40382952       0.70090706       0.23958049       0.11014629
O       -2.13421261       0.38640053      -1.37540544       0.42237339      -1.18970694      -0.21479038      -0.22886482
H       -1.76360237       1.06927568      -0.78761120       0.41117400       0.98069504       0.76561080       0.10716652
H       -2.91693091       0.75876743      -1.77173351      -0.74569728       0.32841712      -0.39406520       0.16926759
O        1.79181135       1.73121292      -0.62307586      -1.02557386       0.18802458      -0.73983761      -0.22889234
H        1.93612326       1.05873520       0.06693913       0.29783207      -0.86751612       0.93560696       0.10714621
H        2.58913792       2.25100452      -0.67275320       0.74384644       0.51080349      -0.06889454       0.16925699
O        1.90437782      -0.24953383       1.24424900       0.85601370       0.74472433      -0.19788676      -0.26773502
H        1.70057238      -1.05305999       0.74810590      -0.14704870      -0.75821024      -0.34509510       0.11013748
H        1.13668526      -0.08851688       1.80834545      -0.63183804       0.05588286       0.57322316       0.10994562
24
Properties=species:S:1:pos:R:3:dft_forces:R:3:dft_hirshfeld:R:1 dft_energy=-16649.9707937384 dft_dipole="3.05007393828e-05 1.5626638025142e-05 -5.90475178827624e-06" pbc="F F F"
O        1.82190025       1.31675559      -0.44491932       0.47961088       0.53669174       0.85278516      -0.26851824
H        1.04941332       1.60157663      -0.95040552      -0.60903790       0.28092181      -0.52869806       0.10964841
H        1.97952795       0.39875990      -0.70146040       0.20216450      -0.76819119      -0.31153665       0.10967166
O       -2.04290736      -1.49166966       0.42552664       0.37505603       0.51180349       1.09391527      -0.22795206
H       -2.78377319      -2.08392658       0.33198597      -0.70844826      -0.56029229      -0.06368160       0.16954030
H       -1.65851188      -1.37819380      -0.46238429       0.44232074       0.08746515      -1.23375799       0.10744005
O       -1.66776800       1.30044752       0.88232931      -0.39733236       0.83739927      -0.61884514      -0.26854005
H       -0.87759781       1.31589109       1.43799838       0.62662372       0.02264966       0.57946027       0.10965453
H       -1.93406511       0.37320811       0.83047852      -0.29481739      -0.79934920       0.04943925       0.10965810
O        1.86694371      -1.49623478      -0.92489145      -0.28938289       0.87879950      -0.85950466      -0.22799387
H        1.48114574      -1.63352645      -0.04096083      -0.45314366      -0.26715766       1.20306859       0.10743957
H        2.53340697      -2.16735025      -1.04249672       0.63834033      -0.62747352      -0.13559874       0.16951757
O       -0.75557810      -0.98312157      -1.92709425      -0.88852005      -0.66956626       0.06981156      -0.26852890
H       -0.76730502      -0.01947612      -1.99510661       0.01449349       0.83743162      -0.17034115       0.10966768
H        0.16280955      -1.22229290      -1.74616149       0.82570056      -0.21168102       0.04666368       0.10965426
O        0.60144585      -1.63408149       1.48968431       0.80551469      -0.70973260      -0.29859294      -0.26853239
H       -0.33462501      -1.69517488       1.25856861      -0.84366794      -0.08956967      -0.09762011       0.10966720
H        0.72184229      -0.75249189       1.86608848       0.07770929       0.73244641       0.43247790       0.10965305
O        0.89964580       1.13396269       2.11763724      -0.99868986      -0.71081247       0.30060063      -0.22795449
H        1.30749547       1.26836663       1.24321374       0.62039151       0.24623819      -1.13084480       0.10744103
H        1.40297663       1.65189892       2.73956999       0.46220412       0.48420232       0.61037318       0.16952775
O       -0.72368217       1.85394174      -1.61827246       0.91539269      -0.68397122      -0.53958496      -0.22796341
H       -1.13012934       1.74335343      -0.73986859      -0.60993216      -0.06416615       1.16126923       0.10744277
H       -1.15261054       2.59937769      -2.02905920      -0.39255007       0.70591408      -0.41125792       0.16953539
24
Properties=species:S:1:pos:R:3:dft_forces:R:3:dft_hirshfeld:R:1 dft_energy=-16649.8370188172 dft_dipole="-3.14392099011708e-08 -7.06866475146137e-08 -5.65252967178461e-08" pbc="F F F"
O       -1.53961744      -1.72035734      -0.43523960      -0.56925204      -0.49537800       0.74628890      -0.27801163
H       -0.65065234      -1.91053180      -0.75826673       0.72337943      -0.19569893      -0.35603511       0.10811849
H       -1.78671627      -0.88026984      -0.84179764      -0.22016644       0.62343514      -0.41774480       0.10840602
O        1.25646366      -1.85725610      -1.23929005      -0.29860627      -0.53899032       1.25850158      -0.22599497
H        1.13594998      -0.96601988      -1.61649685      -0.15020430       1.29447135      -0.67093206       0.10670067
H        1.59975399      -2.40851597      -1.93692665       0.37282445      -0.53745977      -0.62935161       0.17099686
O        0.80152120       0.67921026      -2.04502659       0.53538547      -0.88974191      -0.88997419      -0.27251619
H        1.17522134       1.15626450      -1.28860598       0.29946624       0.59207767       0.86758279       0.10490262
H       -0.14916097       0.83630236      -1.99892740      -0.77958214       0.21638846       0.03454459       0.10978169
O       -1.95291482       1.00554093      -1.32696419       0.64359707      -0.84626514      -0.41833523      -0.22105951
H       -1.76589690       1.38241811      -0.45185881      -0.04263789       0.53136061       0.79732884       0.11657326
H       -2.71688960       1.46553393      -1.66586618      -0.68110892       0.41721279      -0.29493231       0.17194334
O       -0.80152126      -0.67921029       2.04502661      -0.53538265       0.88974025       0.88997212      -0.27251619
H        0.14916100      -0.83630234       1.99892743       0.77957829      -0.21638788      -0.03454454       0.10978169
H       -1.17522136      -1.15626447       1.28860588      -0.29946528      -0.59207658      -0.86758093       0.10490262
O       -1.25646362       1.85725613       1.23928995       0.29860419       0.53899171      -1.25849425      -0.22599498
H       -1.13594998       0.96601983       1.61649675       0.15020417      -1.29446896       0.67093056       0.10670066
H       -1.59975399       2.40851589       1.93692679      -0.37282198       0.53745605       0.62934642       0.17099686
O        1.95291485      -1.00554095       1.32696433      -0.64360472       0.84626327       0.41832127      -0.22105953
H        2.71688952      -1.46553390       1.66586633       0.68111390      -0.41721585       0.29493455       0.17194331
H        1.76589693      -1.38241826       0.45185871       0.04264031      -0.53135559      -0.79731755       0.11657329
O        1.53961743       1.72035738       0.43523951       0.56924726       0.49537711      -0.74628591      -0.27801164
H        0.65065230       1.91053196       0.75826688      -0.72337338       0.19569708       0.35603302       0.10811849
H        1.78671636       0.88026984       0.84179754       0.22016523      -0.62343257       0.41774386       0.10840602
24
Properties=species:S:1:pos:R:3:dft_forces:R:3:dft_hirshfeld:R:1 dft_energy=-16649.8369094498 dft_dipole="0.110370032418377 0.0210984597470417 0.172169361368884" pbc="F F F"
O        1.84281135       1.29059714       0.27527750       0.09126228       0.96038745       0.97155826      -0.27338870
H        1.46418572       1.32537812      -0.61674167      -0.38945299      -0.06963366      -1.03203370       0.10394752
H        2.06480492       0.36497372       0.42528379       0.22640427      -0.81514255       0.07684813       0.10962829
O       -1.92568135      -1.36047602      -0.30630977      -0.39006469      -0.58112951       0.72475964      -0.27759296
H       -2.09353411      -0.42186457      -0.45975430      -0.20738700       0.72978416      -0.20763810       0.10755268
H       -1.20365476      -1.59418827      -0.90271720       0.52029163      -0.20654962      -0.56431336       0.10842599
O       -2.00308167       1.50331419      -0.53040608       0.31855124      -0.86100055      -0.67668997      -0.21895827
H       -2.71181023       2.14016956      -0.57958906      -0.63086104       0.57035885      -0.02985282       0.17279485
H       -1.51184713       1.69452113       0.28466213       0.30394104       0.39814362       0.83281488       0.11690422
O        1.90534032      -1.58447617       0.67468197       0.32909034       0.44852100      -1.25200571      -0.22705247
H        1.11120439      -1.43528068       1.22065395      -1.12065068       0.18428582       0.90742879       0.10711858
H        2.51034392      -2.09822137       1.20231849       0.57281224      -0.53055482       0.46427991       0.17049465
O        0.53800005      -1.78372902      -1.75570136      -0.83636463       0.76347406      -0.13867838      -0.21898660
H        0.86442352      -2.49375698      -2.30306571       0.30341248      -0.63367258      -0.48211715       0.17278961
H        1.08359480      -1.77648821      -0.95290520       0.66429590      -0.21356897       0.67586291       0.11688619
O       -0.39133828      -1.01278705       1.98959524       0.93730502      -0.75733959       0.63659712      -0.27338000
H       -1.02892321      -1.24206942       1.29592365      -0.76868192      -0.15305627      -0.77810320       0.10395034
H       -0.45265087      -0.05640942       2.09031517      -0.11461062       0.83525040       0.09394303       0.10962060
O       -0.37581807       1.87722486       1.71197826      -1.22412021      -0.61360378      -0.11955814      -0.22706659
H        0.46806759       1.73755139       1.24363572       1.31314127      -0.14861396      -0.61097702       0.10709624
H       -0.21457819       2.53762811       2.37998516       0.11845148       0.66153458       0.61020562       0.17049915
O        0.39086179       1.06671351      -2.08861643       0.75137651       0.64418287      -0.16144007      -0.27759018
H       -0.47711881       1.27249020      -1.71995502      -0.75008466       0.16171410       0.20432980       0.10841906
H        0.42756662       0.10300034      -2.13981443      -0.01805726      -0.77377103      -0.14522047       0.10755367
24
Properties=species:S:1:pos:R:3:dft_forces:R:3:dft_hirshfeld:R:1 dft_energy=-16649.7773012287 dft_dipole="-0.0535965470870582 -0.36436063069727 -0.961239444563296" pbc="F F F"
O       -0.14235646      -1.34947844       2.24286121      -1.13806063      -0.17608596      -0.66140909      -0.22873428
H       -0.00256648      -1.71540709       3.11159176       0.11357715      -0.38522819       0.81672130       0.16920120
H        0.65588869      -0.83583595       2.02175695       1.18688413       0.67920701      -0.22927546       0.10649751
O        1.95623208       0.12731295       1.35410541       0.20650111      -0.82029665       1.10461053      -0.27501182
H        1.52597142       0.98348825       1.20493027      -0.45890822       0.99597708      -0.32434804       0.10367067
H        2.16129542      -0.20777644       0.47426715       0.20059206      -0.19620962      -0.73029612       0.10917404
O       -2.07291722      -0.25459040      -1.39209420       0.21242679       1.30495185       0.09872276      -0.22563147
H       -2.88400411      -0.61921028      -1.73528725      -0.75084780      -0.31143078      -0.39317819       0.17228708
H       -1.53139173      -1.00547702      -1.08607441       0.70138544      -1.12860777       0.37988563       0.10781030
O        1.95611454      -0.72394000      -1.41545040      -0.27070248      -0.47459959       0.95651041      -0.22110950
H        2.64205290      -0.84786434      -2.06702715       0.59581788      -0.11531874      -0.59072461       0.17246844
H        1.40405262       0.01038771      -1.72797686      -0.32653267       0.66623878      -0.48201761       0.11832107
O        0.11964647       1.27166634      -2.14132148       0.95908338      -0.16670995       0.65951221      -0.21826296
H       -0.07947491       1.87185030      -2.85588318      -0.16701059       0.49444334      -0.66439089       0.17510018
H       -0.70623117       0.80592816      -1.92916280      -0.91234698      -0.35175619      -0.05350500       0.11791434
O        0.40271641       2.31415778       0.60998401       1.00647227       0.51754338       0.56452791      -0.28536911
H        0.36803211       2.15613156      -0.33864886      -0.09731881      -0.11214278      -0.75621395       0.10614362
H       -0.42278120       1.94160324       0.95482835      -0.90519478      -0.38495125       0.24377136       0.10281038
O       -0.36153513      -2.12986548      -0.46213907      -0.92428167      -0.20220022      -0.66218856      -0.26394512
H       -0.32300162      -2.01114733       0.49706268       0.09625290      -0.01169590       0.88622811       0.11082224
H        0.49427922      -1.83611257      -0.79862231       0.76055584       0.15567973      -0.24479720       0.11244519
O       -1.84757613       0.79325323       1.33465254      -0.12759418       0.98253888       0.39980153      -0.28058321
H       -1.38172518       0.05496471       1.74840545       0.29483884      -0.66205305       0.37659511       0.10690249
H       -2.08426797       0.48443048       0.45298585      -0.25558897      -0.29729343      -0.69454213       0.10653747
24
Properties=species:S:1:pos:R:3:dft_forces:R:3:dft_hirshfeld:R:1 dft_energy=-16649.7813268393 dft_dipole="0.917467804221597 -0.00370853877781245 0.534887539943674" pbc="F F F"
O       -1.65311722       1.72339485      -0.41854232      -1.00126477      -0.05432489       0.29345130      -0.27848313
H       -0.90704863       1.98695753       0.13295638       0.59755836       0.28749093       0.37515014       0.10658358
H       -1.26373367       1.40636209      -1.24344271       0.32792308      -0.15504951      -0.72864613       0.10841346
O       -2.15608554      -0.71034279       0.87494668      -0.61842832      -1.05403366      -0.22335867      -0.28480982
H       -1.47605590      -0.65848842       1.55316424       0.53138848       0.11762702       0.56228776       0.10716249
H       -2.15353493       0.15964204       0.44679332       0.04507240       0.95844203      -0.35190047       0.10254725
O       -0.67110042      -1.88409498      -1.16358679       0.85183469      -1.07430898      -0.06377297      -0.27137630
H       -0.60104994      -1.15901139      -1.79621380      -0.00616490       0.60505376      -0.57481978       0.11028121
H       -1.31769423      -1.59515979      -0.50134307      -0.78172516       0.41462123       0.74331823       0.10419411
O        1.95186432       0.68746303      -0.87069124       0.09269058       0.31941702      -1.07403628      -0.26881603
H        1.63818295       1.26838860      -0.16527134      -0.14370112       0.47817856       0.61343860       0.11069841
H        1.98780485      -0.19459805      -0.48112613       0.09911968      -0.75563941       0.39822211       0.11018717
O        1.53845020      -1.90017750       0.36255556       0.48476077       1.06557458       0.88382251      -0.22514809
H        0.75521215      -1.97778752      -0.21480232      -1.21938982      -0.22282985      -0.99335774       0.10621806
H        2.06291123      -2.68376400       0.22514546       0.49957470      -0.76851776      -0.07562108       0.17188445
O        0.36185021      -0.49333372       2.44334263      -0.57817152       0.96914128      -0.31482580      -0.22011478
H        0.80678900      -1.03945591       1.77406973       0.56543525      -0.71300466      -0.45734783       0.11670373
H        0.44608498      -0.95427229       3.27446061       0.12578403      -0.38090744       0.74293917       0.17464139
O       -0.17739145       0.54792321      -2.59992403      -1.06648788      -0.39549003       0.38119810      -0.22967938
H        0.64096623       0.63808625      -2.08129162       1.06270588       0.13263702       0.55390395       0.10771935
H        0.02759643       0.82734001      -3.48806828       0.16213701       0.25348866      -0.83904124       0.16821806
O        0.67631338       2.03238306       1.29820970      -0.15405244      -0.03404242      -1.09291396      -0.21858494
H        0.85860958       2.71549962       1.93890065       0.18267789       0.60065492       0.57262858       0.17356754
H        0.54588732       1.20923069       1.79567546      -0.05927686      -0.59417838       0.66928151       0.11772345
24
Properties=species:S:1:pos:R:3:dft_forces:R:3:dft_hirshfeld:R:1 dft_energy=-16649.7773214462 dft_dipole="-0.741510203632044 0.731577244869515 0.00174917303830529" pbc="F F F"
O        1.64702946       0.06541351      -1.67371844       0.12587763      -0.94572871      -1.01525117      -0.27628681
H        1.99548060       0.12547652      -0.77046405       0.35712691       0.20859463       1.07836425       0.10300419
H        1.03060585       0.80010204      -1.75835024      -0.47407016       0.66277992      -0.03188204       0.10865227
O       -1.69256645      -0.07439645       1.85325218       0.15547223      -0.78631803      -0.73161692      -0.21842399
H       -1.14705956       0.72337989       1.76692153       0.36213651       0.80442795       0.13663977       0.11857055
H       -2.23508466       0.04586391       2.62892605      -0.49232441       0.12035901       0.68005987       0.17371791
O        0.11042911      -2.17403033      -1.46236156      -0.95803631      -0.13522631       0.85763140      -0.22818995
H        0.36463314      -2.86458536      -2.06799590       0.20371697      -0.66351927      -0.58478032       0.16939920
H        0.72231680      -1.43034079      -1.61022996       0.88603821       1.01073812      -0.30859705       0.10702657
O       -1.95248098      -0.30374857      -0.98458825      -0.35190309       0.84342201      -0.63074908      -0.26441302
H       -2.03919512      -0.31861528      -0.02314300      -0.15208540      -0.09274717       0.79144704       0.11204109
H       -1.36287383      -1.03703692      -1.20841740       0.43560767      -0.74000687      -0.21947376       0.11070473
O        0.45671111      -1.96871447       1.39329792       0.81212132      -0.14801150       0.59099326      -0.28067093
H        0.33219606      -2.19250443       0.46215935      -0.15617440      -0.28089882      -0.76968148       0.10688033
H       -0.32319325      -1.45835642       1.64141358      -0.66432815       0.31244335       0.20913087       0.10611157
O        2.16549259       0.23505215       1.05224730       1.09929909       0.24559338      -0.52542222      -0.28483007
H        1.70772034      -0.58988818       1.27419234      -0.55329296      -0.81586531       0.29959228       0.10262869
H        1.54123098       0.93525151       1.26708294      -0.51809264       0.51774571       0.24162543       0.10557777
O       -0.56044394       1.97400502      -1.45180868       1.10994212       0.31540610       0.63043038      -0.22681916
H       -1.12028635       1.18019227      -1.36647271      -0.85605602      -1.07788353       0.04826273       0.10790346
H       -0.91751707       2.48807506      -2.17070328      -0.35635481       0.54345002      -0.62926763       0.17169401
O       -0.07570535       2.14409522       1.27719082       0.04464161      -1.02906613       0.54601737      -0.21786593
H       -0.20417875       2.17875866       0.31481261      -0.15894000       0.33031399      -0.92094001       0.11790619
H        0.09235746       3.03831557       1.56453682       0.09967811       0.79999747       0.25746704       0.17538264
24
Properties=species:S:1:pos:R:3:dft_forces:R:3:dft_hirshfeld:R:1 dft_energy=-16649.7981352029 dft_dipole="-0.163784188439573 1.00391276269344 -0.386134883982833" pbc="F F F"
O       -1.40940997      -2.21541843      -0.10307078       1.03694495      -0.22695977       0.63368713      -0.22752102
H       -2.08825346      -2.86184284      -0.27748589      -0.61820740      -0.63017126      -0.14918489       0.16890188
H       -1.70442602      -1.38184556      -0.50945918      -0.45740236       0.99142132      -0.54289534       0.10755761
O       -1.23062345       1.85105363       1.12449523      -0.52239302      -0.98872522      -0.17470396      -0.22092120
H       -1.51784989       2.63835851       1.58101936      -0.26038529       0.70106726       0.37948558       0.17247589
H       -0.32121035       2.01451770       0.83046408       0.87938319       0.39097465      -0.19400773       0.11645113
O        1.24078039      -1.78283748      -1.14079024       0.94940286      -0.35142046       0.26205749      -0.28020351
H        0.38001541      -2.07957813      -0.81691159      -0.72298350      -0.31176445       0.15908758       0.10827525
H        1.05706457      -1.00113544      -1.67424307      -0.18426361       0.56738657      -0.48246586       0.10776060
O       -0.58900973      -0.77658328       2.25154014       0.66925810      -0.19461400       0.77575328      -0.28017211
H       -0.90202829      -1.37454566       1.55992671      -0.36652956      -0.50935803      -0.50548949       0.10829116
H       -0.93113586       0.09223309       2.01177188      -0.35410462       0.65847038      -0.17263577       0.10776900
O        0.59796241       0.84546176      -2.26560346      -0.66932279      -0.90695158       0.09967344      -0.22091284
H        0.93152288       1.32560388      -1.49203504       0.44879115       0.62926802       0.60787339       0.11646102
H        0.97179655       1.26923076      -3.03464882       0.31228258       0.38894567      -0.67563608       0.17246414
O       -1.95761653       0.26092187      -1.13331555      -0.68667269      -0.87359310      -0.10374078      -0.26774977
H       -1.89065620       0.85044375      -0.37113259       0.02810523       0.57170199       0.55086584       0.11101413
H       -1.18582746       0.46283809      -1.67784653       0.58219273       0.26801875      -0.47417766       0.11100253
O        1.41411451       2.03970376       0.15772982      -1.29402811       0.53470363      -0.86188209      -0.22277634
H        1.68027357       1.18688765       0.55426129       0.58843950      -1.48819116       0.75969117       0.10514484
H        2.10989097       2.66216508       0.34838661       0.67662028       0.61814640       0.18312159       0.17179351
O        1.95521596      -0.36604842       1.16320415       1.05108915       1.16498419       0.21283848      -0.27484703
H        1.18178228      -0.56638607       1.70964356      -0.90167649      -0.30499649       0.52006630       0.10474844
H        1.88916448      -0.95539579       0.39819547      -0.18454025      -0.69834331      -0.80738161       0.10475389
24
Properties=species:S:1:pos:R:3:dft_forces:R:3:dft_hirshfeld:R:1 dft_energy=-16649.7366048251 dft_dipole="-0.00765879074815732 0.104174906267173 0.236564235876991" pbc="F F F"
O       -3.26430288       0.22889360       0.44347466       0.26212799       0.69933970       0.86265645      -0.26965359
H       -4.15533318       0.05402980       0.15392817      -0.81735314      -0.05200275      -0.24859533       0.15970369
H       -2.68943848      -0.34504670      -0.09185850       0.69026684      -0.78527133      -0.66123222       0.10134681
O       -0.10925258       1.28456150      -1.51381718      -0.54127132      -0.42544570      -0.79266356      -0.27836456
H        0.83098732       1.25255240      -1.30019986       0.78202322       0.08914410       0.15817318       0.10572161
H       -0.52793368       1.71365580      -0.75684225      -0.25257156       0.48622198       0.58456647       0.10791533
O       -1.37515698      -1.16029130      -0.97419941      -1.13122820      -0.42788576      -0.28100427      -0.28045314
H       -0.80740508      -1.55390510      -0.30117618       0.45914553      -0.32888436       0.59045554       0.10428331
H       -0.91453798      -0.36606950      -1.28592169       0.61444885       0.80067038      -0.29659279       0.10048431
O        2.14221227      -1.77948920      -1.17506468       0.99188611       0.48095488       0.07808941      -0.25383356
H        1.58643472      -2.00445140      -1.92022990      -0.51799629      -0.14764651      -0.64081951       0.16399220
H        1.62461316      -2.01323280      -0.38906252      -0.44481147      -0.37766100       0.64030684       0.11218667
O       -1.34057768       2.08984410       0.97697390       1.13276025      -0.33704080      -0.24092002      -0.22162396
H       -1.71264898       2.90716590       1.29702938      -0.35613412       0.72921211       0.30120149       0.17071384
H       -2.08371798       1.47403370       0.85248507      -0.94018000      -0.42094571      -0.06283847       0.11314023
O        2.57730901       0.86650690      -0.57003915      -0.85483171       0.57883069       0.49214951      -0.22674272
H        3.45487821       1.17010530      -0.78587496       0.80968303       0.30140320      -0.18717067       0.16995099
H        2.53449857      -0.07035410      -0.82770597       0.01749039      -1.05592092      -0.40609955       0.11177163
O        0.46893442      -2.06728140       1.04571522      -0.01460524      -0.43167157      -1.21952127      -0.22271199
H        0.33092062      -2.63503800       1.79842175      -0.10051205      -0.56787654       0.69989783       0.17149486
H        0.60513532      -1.16667710       1.39136303       0.14616940       1.20670826       0.57899544       0.10815134
O        0.91431939       0.52071220       1.73696793       0.15400308      -0.90366456       0.66999403      -0.26702567
H        1.56203306       0.75861390       1.06077803       0.56037906       0.32011949      -0.50811239       0.11039367
H        0.14748132       1.08719860       1.58084763      -0.64888866       0.56931271      -0.11091614       0.10888929
24
Properties=species:S:1:pos:R:3:dft_forces:R:3:dft_hirshfeld:R:1 dft_energy=-16649.7366800719 dft_dipole="0.246007670383001 -0.051700730960459 -0.0958613640628082" pbc="F F F"
O        1.75214940       0.55476956       1.90445922      -0.96003814       0.70876528       0.54151604      -0.22723466
H        1.72761041      -0.10768838       1.19103334       0.05194842      -0.93395259      -0.93017386       0.10867540
H        2.66950851       0.66606454       2.13911651       0.84155554       0.08588280       0.25739300       0.16818746
O        1.21466237       0.73253493      -2.35420217       0.30302418       0.12178614       1.11728354      -0.22470444
H        1.69472700       0.99358921      -3.13547613       0.45817093       0.23638185      -0.71443826       0.17004649
H        0.39947015       0.29857950      -2.65957715      -0.92301663      -0.34282651      -0.46745547       0.11168504
O       -0.62796969       0.12914388       3.35135720      -0.64567445      -0.71135638      -0.39590532      -0.26755769
H       -0.66385919       0.72464685       4.09675239      -0.07553869       0.54802402       0.62291329       0.15908292
H        0.23803264       0.27288179       2.93924330       0.79981620       0.12918569      -0.16774837       0.10751939
O        1.57586604      -1.13557945      -0.22634883       0.83854162      -0.01499990       0.83413577      -0.26742554
H        0.71300274      -1.56509149      -0.27853818      -0.78872117      -0.43620411      -0.07438388       0.11080713
H        1.61087137      -0.54229601      -0.98818867       0.05123543       0.43664859      -0.69254298       0.10950780
O       -1.10964531      -0.59146615      -2.94320263       0.98885811       0.13901808      -0.52775199      -0.25410376
H       -1.98692026      -0.23774167      -3.07493426      -0.74056265       0.36799864      -0.08512876       0.16590035
H       -1.17176586      -1.16548721      -2.16340067      -0.20885207      -0.63654839       0.62427054       0.11147001